% Model:              wire_3D.mph
% Version:            COMSOL 6.3.0.420
% Date:               Jan 25 2026, 17:42
% Dimension:          1
% Nodes:              752
% Expressions:        1
% Description:        Line graph
% x-coordinate (nm)       Electric field, z-component
-12.5                     -8.076398232230812E8
-12.496667130993398       -8.083015398067203E8
-12.4921132269941         -8.000726762529616E8
-12.488112208396483       -7.918180959951855E8
-12.46100341485052        -7.977698570082537E8
-12.419556641304936       -8.068695349591672E8
-12.354859138196767       -8.210739323621433E8
-12.351280090878069       -8.218597155530936E8
-12.349712858712387       -8.22203802842936E8
-12.348324704160166       -8.225085734750195E8
-12.343546853993486       -8.235575549540405E8
-12.338852449898294       -8.245882157699115E8
-12.337141355420242       -8.249638881651759E8
-12.289767299454315       -8.35364906522958E8
-12.267537066682031       -8.402455749489124E8
-12.21670148494606        -8.503186086434559E8
-12.20779498413878        -8.510897206237215E8
-12.197577010581309       -8.532225457265747E8
-12.19185439764819        -8.554316875774275E8
-12.163148841070292       -8.607006214794779E8
-12.043961530529772       -8.783646997243668E8
-12.042312842378104       -8.786090424851896E8
-12.041399665975058       -8.78744379203181E8
-12.035507607501964       -8.796176079170446E8
-12.029728440446327       -8.804741056314247E8
-12.016469845182234       -8.824390871642752E8
-12.011922918165224       -8.831129615409856E8
-11.890944934301926       -9.010424253671172E8
-11.88707859743565        -9.016154333208773E8
-11.860481591416873       -9.086860256827044E8
-11.84544963917558        -9.138440197084031E8
-11.826973402997726       -9.188924770134658E8
-11.810663315600644       -9.226539749368011E8
-11.796075372412062       -9.237336962831926E8
-11.783641715575804       -9.246539689032781E8
-11.768512317145905       -9.25773765863799E8
-11.76094466091332        -9.263338832066519E8
-11.73232703073592        -9.28452006768434E8
-11.712731286681855       -9.299023786872226E8
-11.696184041798636       -9.311271170409038E8
-11.689529326211613       -9.316196634116011E8
-11.655331657800323       -9.341507914879285E8
-11.641820857787904       -9.351507884711668E8
-11.630472330456659       -9.359907456228538E8
-11.624934056311831       -9.36400658983431E8
-11.577442343578639       -9.399157409488492E8
-11.57523993853548        -9.400787511626785E8
-11.570910428893951       -9.403991982551119E8
-11.565394680599542       -9.408074443730056E8
-11.499999999999998       -9.500393772762752E8
-11.399999999999997       -9.601962656495441E8
-11.299999999999997       -9.703531540228164E8
-11.199999999999998       -9.80510042396088E8
-11.1                     -9.906669307693584E8
-10.999999999999998       -1.0019672789110935E9
-10.899999999999999       -1.0129568172680638E9
-10.799999999999997       -1.0228028958565693E9
-10.7                     -1.0326489744450755E9
-10.599999999999998       -1.0424950530335815E9
-10.5                     -1.052590134372781E9
-10.400000000000002       -1.056725261216253E9
-10.299999999999999       -1.0606113853090303E9
-10.2                     -1.0644975094018078E9
-10.1                     -1.0683836334945872E9
-10                       -1.0717344688386811E9
-9.899999999999999        -1.0746195923517685E9
-9.8                      -1.0780400046135404E9
-9.7                      -1.0814604168753128E9
-9.6                      -1.0848808291370845E9
-9.5                      -1.092618326533894E9
-9.4                      -1.0980956454285915E9
-9.299999999999999        -1.099255879188251E9
-9.2                      -1.1004161129479096E9
-9.099999999999998        -1.1015763467075696E9
-9                        -1.1019676150223708E9
-8.899999999999999        -1.102196952772306E9
-8.8                      -1.1031952559670994E9
-8.7                      -1.1041935591618938E9
-8.600000000000001        -1.1051918623566885E9
-8.499999999999998        -1.106190165551482E9
-8.439824821937052        -1.1010541199182234E9
-8.42521140324354         -1.101282583838348E9
-8.401223807219424        -1.1016576021921616E9
-8.353236132972143        -1.1024078340445516E9
-8.350422806487087        -1.1024518171542432E9
-8.347499514372425        -1.1024975194495237E9
-8.31947446581116         -1.102935658709766E9
-8.275634209730631        -1.1036210504701405E9
-8.21456588139575         -1.1045757832386637E9
-8.206472265944287        -1.104702317566654E9
-8.203671421658276        -1.1047461055315828E9
-8.200845612974177        -1.1047902837860374E9
-8.199124109685268        -1.105199997391993E9
-8.131283404980554        -1.103188238090229E9
-8.009137686470655        -1.0988768861614878E9
-8.003727761481311        -1.098598045588762E9
-7.996114631434492        -1.0981336298895652E9
-7.991425445401756        -1.0979017133994868E9
-7.977875078207525        -1.0972315430166054E9
-7.8022366568887875       -1.0885448656464171E9
-7.755316995222298        -1.0862243257545474E9
-7.745712722700876        -1.0857493202509532E9
-7.665371543811496        -1.0817758280314698E9
-7.600745552296261        -1.0785795732837546E9
-7.5                      -1.0732389851738585E9
-7.463650904739268        -1.0688769184394397E9
-7.397738066985721        -1.0616161262029307E9
-7.282916140896564        -1.0489676319498622E9
-7.279988687588819        -1.0486451510648928E9
-7.233980391986623        -1.0435769930715668E9
-7.208755473164285        -1.0407982795311694E9
-7.207463549171076        -1.0406559644371794E9
-7.193214200957166        -1.0390862921182038E9
-7.1893194881636955       -1.038657260363874E9
-7.1565613313270475       -1.0350487042927303E9
-7.057633122926409        -1.0241510219593911E9
-6.9886903349286085       -1.0164946607057874E9
-6.978034065594051        -1.0148933050482371E9
-6.9398108662749785       -1.0093710305018574E9
-6.9242258865735415       -1.0071193996011401E9
-6.788690334928608        -9.875379794083811E8
-6.778034065594051        -9.859984210785208E8
-6.739810866274979        -9.804761465321409E8
-6.724225886573542        -9.785120659226027E8
-6.682908265471673        -9.710490327461667E8
-6.650609005124275        -9.649901623032734E8
-6.649728922034729        -9.648250715438817E8
-6.634535531944125        -9.619750130237417E8
-6.633697511232152        -9.618178125532761E8
-6.627720179571242        -9.606965522600641E8
-6.621938843647782        -9.596120579103377E8
-6.616658233801266        -9.586214924739966E8
-6.616015675718187        -9.585009579436225E8
-6.595198319322749        -9.545959253203702E8
-6.593440314370307        -9.542661492162042E8
-6.5609694218238905       -9.481750830745078E8
-6.544845177314707        -9.451504098336991E8
-6.499999999999999        -9.36325301569965E8
-6.399999999999999        -9.103392027886801E8
-6.3                      -8.845595073417524E8
-6.199999999999999        -8.587798118948243E8
-6.1                      -8.330001164478964E8
-6                        -8.152750206598898E8
-5.900000000000001        -7.946167655604999E8
-5.8                      -7.659039108021874E8
-5.7                      -7.371910560438755E8
-5.6                      -7.084782012855625E8
-5.500000000000001        -6.880010349589378E8
-5.3999999999999995       -6.468385694908612E8
-5.300000000000001        -6.00960397482856E8
-5.199999999999999        -5.550822254748497E8
-5.1000000000000005       -5.092040534668442E8
-4.999999999999999        -4.649048208830934E8
-4.9                      -4.196103068469786E8
-4.799999999999999        -3.7273685338660735E8
-4.7                      -3.258633999262371E8
-4.6                      -2.789899464658653E8
-4.500000000000001        -2.3308428362801805E8
-4.400000000000002        -1.748051162751737E8
-4.300000000000001        -1.1555815829980437E8
-4.200000000000002        -5.6311200324436516E7
-4.1000000000000005       2935757.650932597
-4.000000000000002        6.316178770545584E7
-3.9000000000000004       1.2324959659345673E8
-3.8000000000000016       1.8235833340230075E8
-3.700000000000001        2.4146707021114624E8
-3.6000000000000023       3.005758070199904E8
-3.500000000000001        3.2031807009288573E8
-3.3999999999999995       3.3075627310896355E8
-3.3000000000000007       3.805609498609903E8
-3.1999999999999997       4.3036562661301804E8
-3.100000000000001        4.801703033650446E8
-3                        5.357330898369201E8
-2.9000000000000012       5.909908912569888E8
-2.8                      6.404905829572108E8
-2.7000000000000015       6.899902746574314E8
-2.6000000000000005       7.394899663576534E8
-2.5000000000000018       8.048901380241731E8
-2.400000000000003        8.437166161915891E8
-2.3000000000000016       8.666426143927064E8
-2.200000000000003        8.895686125938237E8
-2.100000000000002        9.124946107949417E8
-2.000000000000003        9.262364058826655E8
-1.900000000000002        9.402346553130478E8
-1.800000000000003        9.63417107856822E8
-1.7000000000000015       9.865995604005969E8
-1.6000000000000028       1.009782012944371E9
-1.5000000000000018       1.0346248305197097E9
-1.4000000000000004       1.0513844932992493E9
-1.3000000000000016       1.0641387506654286E9
-1.2000000000000006       1.0768930080316074E9
-1.1000000000000019       1.089647265397786E9
-1.0000000000000004       1.10723700837951E9
-0.9000000000000018       1.1197073898853378E9
-0.8000000000000006       1.1273422857756212E9
-0.7000000000000017       1.1349771816659045E9
-0.6000000000000005       1.1426120775561876E9
-0.5000000000000018       1.1638880203269274E9
-0.4000000000000006       1.1709053687619276E9
-0.3000000000000017       1.171299700869855E9
-0.20000000000000054      1.1716940329777815E9
-0.10000000000000175      1.1720883650857081E9
-5.967448757360216E-16    1.1726315208386903E9
0.0999999999999982        1.170383722984245E9
0.1999999999999994        1.167987101484744E9
0.29999999999999816       1.165590479985244E9
0.39999999999999936       1.163193858485743E9
0.4999999999999982        1.1609942422148182E9
0.599999999999997         1.146502397252825E9
0.6999999999999982        1.138053958021352E9
0.799999999999997         1.1296055187898786E9
0.8999999999999982        1.1211570795584052E9
0.999999999999997         1.1121140764762468E9
1.099999999999998         1.099965011849128E9
1.1999999999999968        1.0884105110726943E9
1.299999999999998         1.0768560102962604E9
1.399999999999997         1.0653015095198269E9
1.4999999999999982        1.063357652268446E9
1.599999999999997         1.0441848061261281E9
1.699999999999998         1.0154013164587557E9
1.7999999999999967        9.86617826791384E8
1.899999999999998         9.578343371240112E8
1.999999999999997         9.290967485395274E8
2.099999999999998         9.002599270868835E8
2.199999999999997         8.713772045513524E8
2.299999999999998         8.424944820158209E8
2.399999999999997         8.136117594802893E8
2.4999999999999982        7.857206287147374E8
2.5999999999999996        7.36342115298779E8
2.6999999999999984        6.85972010112842E8
2.799999999999999         6.356019049269036E8
2.8999999999999977        5.852317997409663E8
2.999999999999999         5.371235885916964E8
3.099999999999998         4.886775551438437E8
3.199999999999999         4.379696276593215E8
3.2999999999999976        3.8726170017480034E8
3.399999999999999         3.3655377269027805E8
3.499999999999998         3.0051263152491355E8
3.5999999999999988        2.5404967091195855E8
3.6999999999999975        1.9291992397984836E8
3.799999999999999         1.3179017704773685E8
3.899999999999998         7.066043011562699E7
3.999999999999999         1.414597591121381E7
4.099999999999998         -4.262994316890524E7
4.199999999999998         -1.0402115497672403E8
4.299999999999997         -1.6541236678454134E8
4.399999999999999         -2.2680357859236017E8
4.499999999999997         -2.6792780501825806E8
4.599999999999998         -2.943860016401694E8
4.699999999999997         -3.454287997744973E8
4.799999999999998         -3.964715979088255E8
4.899999999999997         -4.475143960431526E8
4.999999999999998         -4.975019034349551E8
5.099999999999997         -5.470372689554335E8
5.1999999999999975        -5.976279252184396E8
5.299999999999997         -6.48218581481444E8
5.399999999999999         -6.988092377444494E8
5.4999999999999964        -7.529059009253776E8
5.599999999999998         -7.826960485949295E8
5.699999999999996         -8.089801893465574E8
5.799999999999997         -8.352643300981852E8
5.899999999999996         -8.615484708498123E8
5.999999999999997         -8.868700662915812E8
6.099999999999996         -9.109848396910475E8
6.199999999999997         -9.360621584003727E8
6.299999999999995         -9.611394771096977E8
6.399999999999998         -9.862167958190237E8
6.4999999999999964        -1.0179231747207762E9
6.599999999999995         -1.0342870191781219E9
6.699999999999996         -1.0440218034430401E9
6.799999999999995         -1.0537565877079585E9
6.899999999999997         -1.0634913719728774E9
6.999999999999996         -1.0775791139372122E9
7.099999999999997         -1.091296256909197E9
7.199999999999996         -1.1006604421817648E9
7.299999999999996         -1.1100246274543328E9
7.399999999999995         -1.1193888127269E9
7.4999999999999964        -1.1287529979994671E9
7.546854872023135         -1.1357577512477138E9
7.547003979639635         -1.1357756782319052E9
7.547154039304842         -1.135793719679479E9
7.590401127419245         -1.1409932519578996E9
7.594007959279276         -1.1414268959209213E9
7.597914562823211         -1.1418965809820738E9
7.640564616069417         -1.1470243326573644E9
7.641011938918917         -1.1470781136099386E9
7.641462117914537         -1.1471322379526598E9
7.680802254838495         -1.1518620433729134E9
7.688015918558556         -1.1527293312989564E9
7.695829125646426         -1.1536687014212618E9
7.734274360115695         -1.156303371364437E9
7.812802483738498         -1.1583041532487283E9
7.815974717614078         -1.1584652662077246E9
7.93243471667125          -1.1643800933575244E9
7.934274360115695         -1.1644735260647135E9
8.012802483738497         -1.1684618506515868E9
8.015974717614078         -1.1686229636105828E9
8.13243471667125          -1.1745377907603817E9
8.134274360115695         -1.1746312234675708E9
8.212802483738496         -1.176937679845055E9
8.215974717614076         -1.1787362138613944E9
8.262584250860202         -1.1794613091418355E9
8.272056684584388         -1.1789284882363582E9
8.280802254838493         -1.1784365531331532E9
8.286429942841728         -1.1781199977573187E9
8.328496733625714         -1.1757537562814016E9
8.328923869113687         -1.1757297300676441E9
8.32904251343829          -1.175723056368117E9
8.329584830568445         -1.1756925512294421E9
8.381292125430098         -1.1727840349526157E9
8.38602834229219          -1.1725176244998775E9
8.390401127419244         -1.172271656948275E9
8.399700240218115         -1.1717485852809615E9
8.4428322445419           -1.1693224259360657E9
8.442959207273377         -1.1693152843292181E9
8.443014171146093         -1.1693121926316373E9
8.443194943522812         -1.1693020242520792E9
8.499999999999996         -1.1689077008899722E9
8.599999999999994         -1.169319535793236E9
8.699999999999996         -1.1683309006332102E9
8.799999999999995         -1.1673422654731846E9
8.899999999999997         -1.16635363031316E9
8.999999999999996         -1.1645610827673063E9
9.099999999999996         -1.1628640874489787E9
9.199999999999994         -1.1619710045164788E9
9.299999999999995         -1.1610779215839796E9
9.399999999999995         -1.1601848386514804E9
9.499999999999996         -1.1598607790844688E9
9.599999999999998         -1.1545327770050192E9
9.699999999999996         -1.151187449419187E9
9.799999999999997         -1.147842121833354E9
9.899999999999995         -1.1444967942475197E9
9.999999999999996         -1.1449775150838718E9
10.099999999999996        -1.1438975175032382E9
10.199999999999996        -1.1389914715004187E9
10.299999999999995        -1.1340854254975996E9
10.399999999999997        -1.1291793794947805E9
10.499999999999995        -1.1199464895434678E9
10.599999999999996        -1.1060508675378127E9
10.699999999999996        -1.0964820894806502E9
10.799999999999997        -1.086913311423487E9
10.899999999999995        -1.077344533366324E9
10.999999999999996        -1.0674889357510527E9
11.099999999999996        -1.0553673131820638E9
11.199999999999996        -1.0435325101711831E9
11.299999999999994        -1.0316977071603029E9
11.399999999999995        -1.0198629041494215E9
11.499999999999996        -1.0115393198049773E9
11.573738782743366        -1.0059711479126377E9
11.629984754032158        -9.963673679390209E8
11.651360481969231        -9.927175458596853E8
11.689960920829233        -9.861266716476803E8
11.712055604055447        -9.823540907600323E8
11.739966525660947        -9.775884098798167E8
11.785642613637936        -9.697893962094097E8
11.889954262096495        -9.519785895413587E8
11.9241112081109          -9.461464243822085E8
12.069882762487714        -9.212565006673385E8
12.070155568479946        -9.212099201093918E8
12.075281770593799        -9.203346411147603E8
12.136166812166355        -9.099387580043947E8
12.149923770160829        -9.068613658057368E8
12.174629482654591        -9.019394087698889E8
12.194660469223235        -8.985393782499473E8
12.278110343263185        -8.843747180297055E8
12.331038344509755        -8.753907960954993E8
12.344075017057207        -8.768278583547614E8
12.345094727959673        -8.801884278320308E8
12.34617510814023         -8.798818957583189E8
12.37689328208342         -8.7222369001701E8
12.37811949127921         -8.734261180915453E8
12.429886377594528        -8.634956309794636E8
12.469817351267276        -8.555096258093605E8
12.47196817511942         -8.550794712495455E8
12.472154318217179        -8.550422435136715E8
12.500000000000007        -8.49473239349005E8
-12.5                     8.037146868678908E8
-12.496667130993398       8.04349564477257E8
-12.4921132269941         7.962967595817062E8
-12.488112208396483       7.882668377897872E8
-12.46100341485052        7.94299417089906E8
-12.419556641304936       8.035226585345635E8
-12.354859138196767       8.179199358371481E8
-12.351280090878069       8.187163890888329E8
-12.349712858712387       8.190651487009175E8
-12.348324704160166       8.193740577788112E8
-12.343546853993486       8.204372832582376E8
-12.338852449898294       8.214819393003091E8
-12.337141355420242       8.21862712908376E8
-12.289767299454315       8.324049655135379E8
-12.267537066682031       8.373519079819119E8
-12.21670148494606        8.47499236222279E8
-12.20779498413878        8.482173262818971E8
-12.197577010581309       8.503779578074714E8
-12.19185439764819        8.527031330289824E8
-12.163148841070292       8.581698202694E8
-12.043961530529772       8.762378655138456E8
-12.042312842378104       8.764877962487807E8
-12.041399665975058       8.766262280372957E8
-12.035507607501964       8.775194269742626E8
-12.029728440446327       8.783955122837048E8
-12.016469845182234       8.804054317795218E8
-12.011922918165224       8.810947172638069E8
-11.890944934301926       8.994342173004372E8
-11.88707859743565        9.000203296064647E8
-11.860481591416873       9.073042533881421E8
-11.84544963917558        9.126321671346302E8
-11.826973402997726       9.169676881515462E8
-11.810663315600644       9.199099487712831E8
-11.796075372412062       9.209459710154082E8
-11.783641715575804       9.218289978336276E8
-11.768512317145905       9.229034737286174E8
-11.76094466091332        9.234409216807723E8
-11.73232703073592        9.254733193296164E8
-11.712731286681855       9.268649909633601E8
-11.696184041798636       9.280401610031929E8
-11.689529326211613       9.285127727543743E8
-11.655331657800323       9.309414595619209E8
-11.641820857787904       9.319009840930939E8
-11.630472330456659       9.327069460166669E8
-11.624934056311831       9.331002691283584E8
-11.577442343578639       9.364730866782478E8
-11.57523993853548        9.366294994491087E8
-11.570910428893951       9.369369772228291E8
-11.565394680599542       9.373287005694402E8
-11.499999999999998       9.45832562776258E8
-11.399999999999997       9.555741738901882E8
-11.299999999999997       9.653157850041192E8
-11.199999999999998       9.75057396118049E8
-11.1                     9.847990072319772E8
-10.999999999999998       9.952781299385636E8
-10.899999999999999       1.0052484595996451E9
-10.799999999999997       1.0144812776680703E9
-10.7                     1.0237140957364967E9
-10.599999999999998       1.0329469138049214E9
-10.5                     1.0440215982371519E9
-10.400000000000002       1.0499117691872079E9
-10.299999999999999       1.053960073773457E9
-10.2                     1.0580083783597062E9
-10.1                     1.062056682945955E9
-10                       1.0653828665201141E9
-9.899999999999999        1.0682578378877766E9
-9.8                      1.0718549302675296E9
-9.7                      1.0754520226472852E9
-9.6                      1.0790491150270414E9
-9.5                      1.0866726080037284E9
-9.4                      1.093150371141932E9
-9.299999999999999        1.0956017336832023E9
-9.2                      1.0980530962244737E9
-9.099999999999998        1.100504458765745E9
-9                        1.1024610316661224E9
-8.899999999999999        1.104222866726299E9
-8.8                      1.1064794914273682E9
-8.7                      1.1087361161284382E9
-8.600000000000001        1.110992740829507E9
-8.499999999999998        1.1132493655305748E9
-8.439824821937052        1.1152301606080542E9
-8.42521140324354         1.1159109667035258E9
-8.401223807219424        1.1170284944998221E9
-8.353236132972143        1.1192641316098113E9
-8.350422806487087        1.1193951981220183E9
-8.347499514372425        1.119531387683971E9
-8.31947446581116         1.1208370112540977E9
-8.275634209730631        1.12287942954051E9
-8.21456588139575         1.1257244647128124E9
-8.206472265944287        1.1261015279345899E9
-8.203671421658276        1.1262320129294002E9
-8.200845612974177        1.1263636609590034E9
-8.199124109685268        1.127250181211054E9
-8.131283404980554        1.1286726757900121E9
-8.009137686470655        1.1297820860057673E9
-8.003727761481311        1.1298625115993142E9
-7.996114631434492        1.1298194161743288E9
-7.991425445401756        1.129773600281788E9
-7.977875078207525        1.1296412058399968E9
-7.8022366568887875       1.1279251231380103E9
-7.755316995222298        1.1274666925784302E9
-7.745712722700876        1.127372853623289E9
-7.665371543811496        1.126587876701305E9
-7.600745552296261        1.1259564456891994E9
-7.5                      1.125407870886558E9
-7.463650904739268        1.1264242501559567E9
-7.397738066985721        1.1274770963115833E9
-7.282916140896564        1.129311182471197E9
-7.279988687588819        1.1293579435888467E9
-7.233980391986623        1.130092848332788E9
-7.208755473164285        1.1304957737675478E9
-7.207463549171076        1.130516410069306E9
-7.193214200957166        1.1307440193181036E9
-7.1893194881636955       1.1308062307708588E9
-7.1565613313270475       1.1313294869477491E9
-7.057633122926409        1.1329096978360617E9
-6.9886903349286085       1.1337268906499853E9
-6.978034065594051        1.1334345022873306E9
-6.9398108662749785       1.1334045992436256E9
-6.9242258865735415       1.133392406692048E9
-6.788690334928608        1.1332863735604262E9
-6.778034065594051        1.1332780368724115E9
-6.739810866274979        1.133248133828706E9
-6.724225886573542        1.1334907852102742E9
-6.682908265471673        1.1317474010062141E9
-6.650609005124275        1.1301853243639498E9
-6.649728922034729        1.1301427612457037E9
-6.634535531944125        1.1294079691940563E9
-6.633697511232152        1.129367440322317E9
-6.627720179571242        1.1290783609418561E9
-6.621938843647782        1.1287987604274795E9
-6.616658233801266        1.128543376334797E9
-6.616015675718187        1.1285123005466185E9
-6.595198319322749        1.1275055187866278E9
-6.593440314370307        1.1274204970727043E9
-6.5609694218238905       1.1258501198487492E9
-6.544845177314707        1.1250703092446976E9
-6.499999999999999        1.122418993774909E9
-6.399999999999999        1.123362452685378E9
-6.3                      1.124547154343401E9
-6.199999999999999        1.1257318560014224E9
-6.1                      1.126916557659443E9
-6                        1.1312923744781327E9
-5.900000000000001        1.1352736588025942E9
-5.8                      1.1360638279663868E9
-5.7                      1.1368539971301782E9
-5.6                      1.13764416629397E9
-5.500000000000001        1.140576924026562E9
-5.3999999999999995       1.1395897824042192E9
-5.300000000000001        1.1403977088778944E9
-5.199999999999999        1.1412056353515697E9
-5.1000000000000005       1.1420135618252444E9
-4.999999999999999        1.143870850892226E9
-4.9                      1.1457909960015206E9
-4.799999999999999        1.146661778517508E9
-4.7                      1.147532561033496E9
-4.6                      1.1484033435494828E9
-4.500000000000001        1.1475246113760595E9
-4.400000000000002        1.147876228213705E9
-4.300000000000001        1.1499773597407613E9
-4.200000000000002        1.1520784912678175E9
-4.1000000000000005       1.154179622794874E9
-4.000000000000002        1.157195816978078E9
-3.9000000000000004       1.1596395098121212E9
-3.8000000000000016       1.1611681399900153E9
-3.700000000000001        1.1626967701679096E9
-3.6000000000000023       1.164225400345805E9
-3.500000000000001        1.1607697231355689E9
-3.3999999999999995       1.1582824685460584E9
-3.3000000000000007       1.1607795213446789E9
-3.1999999999999997       1.1632765741432986E9
-3.100000000000001        1.1657736269419184E9
-3                        1.1702267719977741E9
-2.9000000000000012       1.1749453898410573E9
-2.8                      1.1777079154271047E9
-2.7000000000000015       1.1804704410131526E9
-2.6000000000000005       1.1832329665991998E9
-2.5000000000000018       1.1909601631099148E9
-2.400000000000003        1.1970550510491004E9
-2.3000000000000016       1.1981852680636168E9
-2.200000000000003        1.1993154850781312E9
-2.100000000000002        1.2004457020926478E9
-2.000000000000003        1.1964054245091307E9
-1.900000000000002        1.1919813458939183E9
-1.800000000000003        1.1927277618767402E9
-1.7000000000000015       1.1934741778595622E9
-1.6000000000000028       1.1942205938423843E9
-1.5000000000000018       1.1918479123279407E9
-1.4000000000000004       1.1885082992569005E9
-1.3000000000000016       1.1889889152263064E9
-1.2000000000000006       1.1894695311957116E9
-1.1000000000000019       1.1899501471651163E9
-1.0000000000000004       1.1925418985829349E9
-0.9000000000000018       1.1935659909592676E9
-0.8000000000000006       1.1924789478871875E9
-0.7000000000000017       1.1913919048151066E9
-0.6000000000000005       1.190304861743026E9
-0.5000000000000018       1.1902487624852006E9
-0.4000000000000006       1.1836216463443868E9
-0.3000000000000017       1.1801361257567582E9
-0.20000000000000054      1.176650605169129E9
-0.10000000000000175      1.173165084581499E9
-5.967448757360216E-16    1.17171142443174E9
0.0999999999999982        1.1687476808817735E9
0.1999999999999994        1.163752076893936E9
0.29999999999999816       1.1587564729060988E9
0.39999999999999936       1.1537608689182615E9
0.4999999999999982        1.1462250295537696E9
0.599999999999997         1.1285148052143593E9
0.6999999999999982        1.1185090960623257E9
0.799999999999997         1.1085033869102924E9
0.8999999999999982        1.0984976777582583E9
0.999999999999997         1.0902813483352113E9
1.099999999999998         1.0796458320777872E9
1.1999999999999968        1.0672209360913758E9
1.299999999999998         1.0547960401049647E9
1.399999999999997         1.0423711441185539E9
1.4999999999999982        1.0369905361903423E9
1.599999999999997         1.0156070381253711E9
1.699999999999998         9.871792520022002E8
1.7999999999999967        9.587514658790289E8
1.899999999999998         9.30323679755857E8
1.999999999999997         9.01923636442725E8
2.099999999999998         8.732357212614782E8
2.199999999999997         8.445200632701933E8
2.299999999999998         8.158044052789085E8
2.399999999999997         7.870887472876238E8
2.4999999999999982        7.593323676786397E8
2.5999999999999996        7.102915191291698E8
2.6999999999999984        6.602913921973995E8
2.799999999999999         6.102912652656276E8
2.8999999999999977        5.602911383338572E8
2.999999999999999         5.1301336878393793E8
3.099999999999998         4.651019755075898E8
3.199999999999999         4.144682248493881E8
3.2999999999999976        3.638344741911876E8
3.399999999999999         3.132007235329859E8
3.499999999999998         2.771135903473717E8
3.5999999999999988        2.310156353157308E8
3.6999999999999975        1.7037106281150535E8
3.799999999999999         1.0972649030727845E8
3.899999999999998         4.908191780305296E7
3.999999999999999         -7007570.1885260865
4.099999999999998         -6.364122666896348E7
4.199999999999998         -1.248299676620503E8
4.299999999999997         -1.8601870865513575E8
4.399999999999999         -2.4720744964822266E8
4.499999999999997         -2.882128644978762E8
4.599999999999998         -3.156134682793181E8
4.699999999999997         -3.66487696578833E8
4.799999999999998         -4.173619248783483E8
4.899999999999997         -4.6823615317786294E8
4.999999999999998         -5.179175195690921E8
5.099999999999997         -5.673051073643334E8
5.1999999999999975        -6.178855570678625E8
5.299999999999997         -6.684660067713901E8
5.399999999999999         -7.19046456474919E8